 Gaussian 16, Revision A.03,
 Gaussian 16:  ES64L-G16RevA.03 25-Dec-2016

 ---------------------------------
 #P BLYP/6-311+G(d,p) Pop=full Opt
 ---------------------------------

 ------------------------------------
 C6H6 single-point energy calculation
 ------------------------------------
 Symbolic Z-matrix:
 Charge =  0 Multiplicity = 1

 SCF Done:  E(RB-LYP) =  -232.199805811     A.U. after   10 cycles
 SCF Done:  E(RB-LYP) =  -232.200428757     A.U. after    9 cycles
 SCF Done:  E(RB-LYP) =  -232.200430325     A.U. after    7 cycles
 Optimization completed.
    -- Stationary point found.

                         Standard orientation:
 ---------------------------------------------------------------------
 Center     Atomic      Atomic             Coordinates (Angstroms)
 Number     Number       Type             X           Y           Z
 ---------------------------------------------------------------------
      1          6           0        1.216446    0.702274    0.000000
      2          6           0        1.216430   -0.702272    0.000000
      3          6           0       -0.000013    1.404570    0.000000
      4          6           0       -1.216414    0.702296    0.000000
      5          6           0       -1.216435   -0.702302    0.000000
      6          6           0        0.000000   -1.404566    0.000000
      7          1           0        2.161142    1.247957    0.000000
      8          1           0        0.000038    2.495544    0.000000
      9          1           0       -2.161213    1.247818    0.000000
     10          1           0       -2.161225   -1.247815    0.000000
     11          1           0        0.000042   -2.495543    0.000000
     12          1           0        2.161131   -1.247960    0.000000
 ---------------------------------------------------------------------

 The electronic state is 1-A'.
 Alpha  occ. eigenvalues --   -9.91205  -9.91192  -9.91192  -9.91159  -9.91159
 Alpha  occ. eigenvalues --   -9.91143  -0.76779  -0.66857  -0.66856  -0.53798
 Alpha  occ. eigenvalues --   -0.53797  -0.46633  -0.40886  -0.39427  -0.37252
 Alpha  occ. eigenvalues --   -0.37251  -0.32256  -0.30140  -0.30138  -0.22458
 Alpha  occ. eigenvalues --   -0.22457
 Alpha virt. eigenvalues --   -0.04051  -0.04050  -0.00785   0.01237   0.01237
 Alpha virt. eigenvalues --    0.03431   0.03431   0.05283   0.05752   0.06664
 Alpha virt. eigenvalues --    0.07964   0.07964   0.08830   0.09259   0.12832

 Mulliken charges:
               1
     1  C   -0.118075
     2  C   -0.118074
     3  C   -0.118007
     4  C   -0.118045
     5  C   -0.118060
     6  C   -0.117999
     7  H    0.118046
     8  H    0.118042
     9  H    0.118042
    10  H    0.118045
    11  H    0.118041
    12  H    0.118043
 Sum of Mulliken charges =  -0.00000

 Dipole moment (field-independent basis, Debye):
    X=             -0.0000    Y=              0.0000    Z=              0.0000  Tot=              0.0000
 Quadrupole moment (field-independent basis, Debye-Ang):
   XX=            -32.5843   YY=            -32.5831   ZZ=            -40.4495
   XY=              0.0001   XZ=              0.0000   YZ=              0.0000

 Normal termination of Gaussian 16 at Tue Sep 29 08:54:39 2020.
