 Gaussian 16, Revision A.03,
 Gaussian 16:  ES64L-G16RevA.03 25-Dec-2016

 ---------------------
 #P RHF/3-21G Pop=full
 ---------------------

 ----------------------------------
 H2 single-point energy calculation
 ----------------------------------
 Symbolic Z-matrix:
 Charge =  0 Multiplicity = 1

                         Standard orientation:
 ---------------------------------------------------------------------
 Center     Atomic      Atomic             Coordinates (Angstroms)
 Number     Number       Type             X           Y           Z
 ---------------------------------------------------------------------
      1          1           0        0.000000    0.000000    0.500000
      2          1           0        0.000000    0.000000   -0.500000
 ---------------------------------------------------------------------

 SCF Done:  E(RHF) =  -1.09138608714     A.U. after    4 cycles

 The electronic state is 1-SGG.
 Alpha  occ. eigenvalues --   -0.52293
 Alpha virt. eigenvalues --    0.18809   1.06763   1.29870

 Mulliken charges:
               1
     1  H    0.000000
     2  H    0.000000
 Sum of Mulliken charges =   0.00000

 Dipole moment (field-independent basis, Debye):
    X=              0.0000    Y=              0.0000    Z=              0.0000  Tot=              0.0000
 Quadrupole moment (field-independent basis, Debye-Ang):
   XX=             -2.3143   YY=             -2.3143   ZZ=             -1.5919
   XY=              0.0000   XZ=             -0.0000   YZ=              0.0000

 Normal termination of Gaussian 16 at Thu Sep 17 16:41:54 2020.
